============================== echo of input deck ==============================
echo
start methane

geometry units angstrom
 C    0.00288864     0.00091914     0.00000000
 H    0.19663154     0.62968532     0.93097000
 H    0.19663154     0.62968532    -0.93097000
 H    0.67319111    -0.92119748     0.00000000
 H   -1.08378603    -0.34368797     0.00000000
end

basis
  C library 6-31g
  H library 6-31g
end

task scf freq
================================================================================

         Total SCF energy =    -40.172159566963

 Vector    2  Occ=2.000000D+00  E=-9.261678D-01

 Vector    3  Occ=2.000000D+00  E=-5.327789D-01

 Vector    4  Occ=2.000000D+00  E=-5.305950D-01

 Vector    5  Occ=2.000000D+00  E=-5.281242D-01

 Vector    6  Occ=0.000000D+00  E= 2.430510D-01

 Vector    7  Occ=0.000000D+00  E= 3.079294D-01

 Vector    8  Occ=0.000000D+00  E= 3.085716D-01

 Vector    9  Occ=0.000000D+00  E= 3.096026D-01

 Vector   10  Occ=0.000000D+00  E= 7.627653D-01

 Vector   11  Occ=0.000000D+00  E= 7.643218D-01

 Vector   12  Occ=0.000000D+00  E= 7.659967D-01

 Vector   13  Occ=0.000000D+00  E= 1.161622D+00

 Vector   14  Occ=0.000000D+00  E= 1.177885D+00

 Vector   15  Occ=0.000000D+00  E= 1.179958D+00

 Zero-Point correction to Energy  =   27.462 kcal/mol  (  0.043764 au)
 Thermal correction to Energy     =   29.248 kcal/mol  (  0.046609 au)
 Thermal correction to Enthalpy   =   29.840 kcal/mol  (  0.047553 au)
 Total Entropy                    =   49.599 cal/mol-K
   - Translational                =   34.246 cal/mol-K (mol. weight =  16.0313)
   - Rotational                   =   15.318 cal/mol-K (symmetry #  =        1)
   - Vibrational                  =    0.034 cal/mol-K
   - Translational                  =    2.979 cal/mol-K
   - Rotational                     =    2.979 cal/mol-K
   - Vibrational                    =    0.239 cal/mol-K
 P.Frequency       -0.00       -0.00       -0.00       -0.00       -0.00        0.00
 P.Frequency     1575.72     1581.43     1584.20     1718.85     1723.36     2710.60
 P.Frequency     2770.59     2775.45     2778.99
 Total times  cpu:        2.1s     wall:        3.7s

 Output coordinates in angstroms (scale by  1.889725989 to convert to a.u.)

  No.       Tag          Charge          X              Y              Z
 ---- ---------------- ---------- -------------- -------------- --------------
    1 C                    6.0000     0.00288864     0.00091914     0.00000000
    2 H                    1.0000     0.19663103     0.62968548    -0.93097000
    3 H                    1.0000     0.19663103     0.62968548     0.93097000
    4 H                    1.0000     0.67319186    -0.92119693     0.00000000
    5 H                    1.0000    -1.08378575    -0.34368886     0.00000000

         Total SCF energy =    -40.172159566963

 Vector    2  Occ=2.000000D+00  E=-9.261678D-01

 Vector    3  Occ=2.000000D+00  E=-5.327789D-01

 Vector    4  Occ=2.000000D+00  E=-5.305950D-01

 Vector    5  Occ=2.000000D+00  E=-5.281242D-01

 Vector    6  Occ=0.000000D+00  E= 2.430510D-01

 Vector    7  Occ=0.000000D+00  E= 3.079294D-01

 Vector    8  Occ=0.000000D+00  E= 3.085716D-01

 Vector    9  Occ=0.000000D+00  E= 3.096026D-01

 Vector   10  Occ=0.000000D+00  E= 7.627653D-01

 Vector   11  Occ=0.000000D+00  E= 7.643218D-01

 Vector   12  Occ=0.000000D+00  E= 7.659967D-01

 Vector   13  Occ=0.000000D+00  E= 1.161622D+00

 Vector   14  Occ=0.000000D+00  E= 1.177885D+00

 Vector   15  Occ=0.000000D+00  E= 1.179958D+00

       Multipole analysis of the density wrt the origin
       ------------------------------------------------

     L   x y z        total         open         nuclear
     -   - - -        -----         ----         -------
     0   0 0 0     -0.000000      0.000000     10.000000

     1   1 0 0     -0.003911      0.000000      0.000000
     1   0 1 0     -0.001270      0.000000     -0.000000
     1   0 0 1     -0.000000      0.000000      0.000000

     2   2 0 0     -6.433708      0.000000      6.089223
     2   1 1 0     -0.002317      0.000000     -0.000035
     2   1 0 1     -0.000000      0.000000     -0.000000
     2   0 2 0     -6.368524      0.000000      6.284139
     2   0 1 1     -0.000000      0.000000      0.000000

 Zero-Point correction to Energy  =   27.462 kcal/mol  (  0.043764 au)
 Thermal correction to Energy     =   29.248 kcal/mol  (  0.046609 au)
 Thermal correction to Enthalpy   =   29.840 kcal/mol  (  0.047553 au)
 Total Entropy                    =   49.599 cal/mol-K
   - Translational                =   34.246 cal/mol-K (mol. weight =  16.0313)
   - Rotational                   =   15.318 cal/mol-K (symmetry #  =        1)
   - Vibrational                  =    0.034 cal/mol-K
   - Translational                  =    2.979 cal/mol-K
   - Rotational                     =    2.979 cal/mol-K
   - Vibrational                    =    0.239 cal/mol-K
 P.Frequency       -0.00       -0.00       -0.00       -0.00       -0.00        0.00
 P.Frequency     1575.72     1581.43     1584.20     1718.85     1723.36     2710.60
 P.Frequency     2770.59     2775.45     2778.99

 Normal Eigenvalue ||           Projected Infra Red Intensities
  Mode   [cm**-1]  || [atomic units] [(debye/angs)**2] [(KM/mol)] [arbitrary]
 ------ ---------- || -------------- ----------------- ---------- -----------
    1       -0.000 ||    0.000001           0.000         0.001       0.001
    2       -0.000 ||    0.000000           0.000         0.000       0.000
    3       -0.000 ||    0.000000           0.000         0.000       0.000
    4       -0.000 ||    0.000000           0.000         0.000       0.000
    5       -0.000 ||    0.000001           0.000         0.001       0.001
    6        0.000 ||    0.000000           0.000         0.000       0.000
    7     1575.722 ||    0.014114           0.326        13.759      10.981
    8     1581.432 ||    0.012624           0.291        12.306       9.821
    9     1584.204 ||    0.012727           0.294        12.407       9.901
   10     1718.850 ||    0.000005           0.000         0.005       0.004
   11     1723.364 ||    0.000005           0.000         0.005       0.004
   12     2710.604 ||    0.000009           0.000         0.008       0.007
   13     2770.589 ||    0.053252           1.229        51.912      41.430
   14     2775.447 ||    0.050179           1.158        48.917      39.040
   15     2778.990 ||    0.049884           1.151        48.630      38.810
 ----------------------------------------------------------------------------

 Total times  cpu:        2.1s     wall:        3.8s
