============================== echo of input deck ==============================
echo
start methanol

geometry units angstrom
 C      0.01262217    -0.66514356     0.00000000
 O      0.09368171     0.74814055     0.00000000
 H     -0.51552928    -1.00097453    -0.89545644
 H     -0.51552928    -1.00097453     0.89545644
 H      1.02444426    -1.07870724     0.00000000
 H     -0.81857240     1.08639328     0.00000000
end

basis
  C library 6-31g*
  O library 6-31g*
  H library 6-31g*
end

dft
  xc b3lyp
end

task dft optimize

task dft freq
================================================================================

         Total DFT energy =     -115.713349664964
@ Step       Energy      Delta E   Gmax     Grms     Xrms     Xmax   Walltime
@ ---- ---------------- -------- -------- -------- -------- -------- --------
@    0    -115.71334966  0.0D+00  0.00775  0.00396  0.00000  0.00000     21.9
         Total DFT energy =     -115.714384989934

 Vector   16  Occ=0.000000D+00  E= 5.671013D-01  Symmetry=a'

 Vector   17  Occ=0.000000D+00  E= 5.770966D-01  Symmetry=a"

 Vector   18  Occ=0.000000D+00  E= 7.861107D-01  Symmetry=a'

 Vector   19  Occ=0.000000D+00  E= 8.490646D-01  Symmetry=a"

         Total DFT energy =   -115.714384989934
@    1    -115.71438499 -1.0D-03  0.00218  0.00077  0.03637  0.07927     43.8
         Total DFT energy =     -115.714404461086

 Vector    1  Occ=2.000000D+00  E=-1.914006D+01  Symmetry=a'

 Vector    2  Occ=2.000000D+00  E=-1.022470D+01  Symmetry=a'

 Vector    3  Occ=2.000000D+00  E=-1.010446D+00  Symmetry=a'

 Vector    4  Occ=2.000000D+00  E=-6.782150D-01  Symmetry=a'

 Vector    5  Occ=2.000000D+00  E=-5.022607D-01  Symmetry=a'

 Vector    6  Occ=2.000000D+00  E=-4.340756D-01  Symmetry=a"

 Vector    7  Occ=2.000000D+00  E=-4.190494D-01  Symmetry=a'

 Vector    8  Occ=2.000000D+00  E=-3.303515D-01  Symmetry=a'

 Vector    9  Occ=2.000000D+00  E=-2.645230D-01  Symmetry=a"

 Vector   10  Occ=0.000000D+00  E= 7.525184D-02  Symmetry=a'

 Vector   11  Occ=0.000000D+00  E= 1.308224D-01  Symmetry=a'

 Vector   12  Occ=0.000000D+00  E= 1.666040D-01  Symmetry=a'

 Vector   13  Occ=0.000000D+00  E= 1.751322D-01  Symmetry=a"

 Vector   14  Occ=0.000000D+00  E= 2.058142D-01  Symmetry=a'

 Vector   15  Occ=0.000000D+00  E= 5.341404D-01  Symmetry=a'

 Vector   16  Occ=0.000000D+00  E= 5.672962D-01  Symmetry=a'

 Vector   17  Occ=0.000000D+00  E= 5.774327D-01  Symmetry=a"

 Vector   18  Occ=0.000000D+00  E= 7.864704D-01  Symmetry=a'

 Vector   19  Occ=0.000000D+00  E= 8.488412D-01  Symmetry=a"

         Total DFT energy =   -115.714404461086
@    2    -115.71440446 -1.9D-05  0.00019  0.00008  0.00194  0.00478     62.0
         Total DFT energy =     -115.714405113942

 Vector    1  Occ=2.000000D+00  E=-1.914008D+01  Symmetry=a'

 Vector    2  Occ=2.000000D+00  E=-1.022479D+01  Symmetry=a'

 Vector    3  Occ=2.000000D+00  E=-1.010443D+00  Symmetry=a'

 Vector    4  Occ=2.000000D+00  E=-6.782755D-01  Symmetry=a'

 Vector    5  Occ=2.000000D+00  E=-5.023072D-01  Symmetry=a'

 Vector    6  Occ=2.000000D+00  E=-4.340217D-01  Symmetry=a"

 Vector    7  Occ=2.000000D+00  E=-4.191933D-01  Symmetry=a'

 Vector    8  Occ=2.000000D+00  E=-3.302196D-01  Symmetry=a'

 Vector    9  Occ=2.000000D+00  E=-2.645229D-01  Symmetry=a"

 Vector   10  Occ=0.000000D+00  E= 7.523274D-02  Symmetry=a'

 Vector   11  Occ=0.000000D+00  E= 1.307235D-01  Symmetry=a'

 Vector   12  Occ=0.000000D+00  E= 1.666894D-01  Symmetry=a'

 Vector   13  Occ=0.000000D+00  E= 1.751458D-01  Symmetry=a"

 Vector   14  Occ=0.000000D+00  E= 2.058690D-01  Symmetry=a'

 Vector   15  Occ=0.000000D+00  E= 5.342078D-01  Symmetry=a'

 Vector   16  Occ=0.000000D+00  E= 5.672287D-01  Symmetry=a'

 Vector   17  Occ=0.000000D+00  E= 5.774100D-01  Symmetry=a"

 Vector   18  Occ=0.000000D+00  E= 7.863200D-01  Symmetry=a'

 Vector   19  Occ=0.000000D+00  E= 8.487724D-01  Symmetry=a"

         Total DFT energy =   -115.714405113942
@    3    -115.71440511 -6.5D-07  0.00007  0.00003  0.00087  0.00213     73.1
         Total DFT energy =     -115.714405154256

 Vector    1  Occ=2.000000D+00  E=-1.914009D+01  Symmetry=a'

 Vector    2  Occ=2.000000D+00  E=-1.022472D+01  Symmetry=a'

 Vector    3  Occ=2.000000D+00  E=-1.010481D+00  Symmetry=a'

 Vector    4  Occ=2.000000D+00  E=-6.782560D-01  Symmetry=a'

 Vector    5  Occ=2.000000D+00  E=-5.023109D-01  Symmetry=a'

 Vector    6  Occ=2.000000D+00  E=-4.340144D-01  Symmetry=a"

 Vector    7  Occ=2.000000D+00  E=-4.191740D-01  Symmetry=a'

 Vector    8  Occ=2.000000D+00  E=-3.302613D-01  Symmetry=a'

 Vector    9  Occ=2.000000D+00  E=-2.645260D-01  Symmetry=a"

 Vector   10  Occ=0.000000D+00  E= 7.524968D-02  Symmetry=a'

 Vector   11  Occ=0.000000D+00  E= 1.307438D-01  Symmetry=a'

 Vector   12  Occ=0.000000D+00  E= 1.666953D-01  Symmetry=a'

 Vector   13  Occ=0.000000D+00  E= 1.751487D-01  Symmetry=a"

 Vector   14  Occ=0.000000D+00  E= 2.058923D-01  Symmetry=a'

 Vector   15  Occ=0.000000D+00  E= 5.342257D-01  Symmetry=a'

 Vector   16  Occ=0.000000D+00  E= 5.672684D-01  Symmetry=a'

 Vector   17  Occ=0.000000D+00  E= 5.774175D-01  Symmetry=a"

 Vector   18  Occ=0.000000D+00  E= 7.863589D-01  Symmetry=a'

 Vector   19  Occ=0.000000D+00  E= 8.487701D-01  Symmetry=a"

         Total DFT energy =   -115.714405154256
@    4    -115.71440515 -4.0D-08  0.00001  0.00000  0.00020  0.00073     82.8
@    4    -115.71440515 -4.0D-08  0.00001  0.00000  0.00020  0.00073     82.8

 Output coordinates in angstroms (scale by  1.889725989 to convert to a.u.)

  No.       Tag          Charge          X              Y              Z
 ---- ---------------- ---------- -------------- -------------- --------------
    1 C                    6.0000     0.00376021     0.65585360     0.00000000
    2 O                    8.0000    -0.10099215    -0.75892833     0.00000000
    3 H                    1.0000     0.51790864     1.04402672    -0.89318449
    4 H                    1.0000     0.51790864     1.04402672     0.89318449
    5 H                    1.0000    -1.01752472     1.04642380     0.00000000
    6 H                    1.0000     0.79782221    -1.12013647     0.00000000

         Total DFT energy =     -115.714405820726

                       DFT Final Molecular Orbital Analysis
                       ------------------------------------

 Vector    1  Occ=2.000000D+00  E=-1.914012D+01

 Vector    2  Occ=2.000000D+00  E=-1.022470D+01

 Vector    3  Occ=2.000000D+00  E=-1.010490D+00

 Vector    4  Occ=2.000000D+00  E=-6.782517D-01

 Vector    5  Occ=2.000000D+00  E=-5.023141D-01

 Vector    6  Occ=2.000000D+00  E=-4.340104D-01

 Vector    7  Occ=2.000000D+00  E=-4.191735D-01

 Vector    8  Occ=2.000000D+00  E=-3.302677D-01

 Vector    9  Occ=2.000000D+00  E=-2.645350D-01

 Vector   10  Occ=0.000000D+00  E= 7.524854D-02

 Vector   11  Occ=0.000000D+00  E= 1.307467D-01

 Vector   12  Occ=0.000000D+00  E= 1.666988D-01

 Vector   13  Occ=0.000000D+00  E= 1.751533D-01

 Vector   14  Occ=0.000000D+00  E= 2.058923D-01

 Vector   15  Occ=0.000000D+00  E= 5.342296D-01

 Vector   16  Occ=0.000000D+00  E= 5.672741D-01

 Vector   17  Occ=0.000000D+00  E= 5.774213D-01

 Vector   18  Occ=0.000000D+00  E= 7.863575D-01

 Vector   19  Occ=0.000000D+00  E= 8.487762D-01

     Multipole analysis of the density
     ---------------------------------

     L   x y z        total         alpha         beta         nuclear
     -   - - -        -----         -----         ----         -------
     0   0 0 0     -0.000000     -9.000000     -9.000000     18.000000

     1   1 0 0      0.590191      0.266052      0.266052      0.058088
     1   0 1 0      0.309837      0.270158      0.270158     -0.230479
     1   0 0 1      0.000000      0.000000      0.000000      0.000000

     2   2 0 0     -8.822841     -8.500317     -8.500317      8.177793
     2   1 1 0     -1.646150     -0.378392     -0.378392     -0.889365
     2   1 0 1      0.000000      0.000000      0.000000      0.000000
     2   0 2 0     -9.457075    -25.651998    -25.651998     41.846922
     2   0 1 1      0.000000      0.000000      0.000000      0.000000

 Zero-Point correction to Energy  =   32.282 kcal/mol  (  0.051445 au)
 Thermal correction to Energy     =   34.347 kcal/mol  (  0.054735 au)
 Thermal correction to Enthalpy   =   34.939 kcal/mol  (  0.055679 au)
 Total Entropy                    =   56.710 cal/mol-K
   - Translational                =   36.308 cal/mol-K (mol. weight =  32.0262)
   - Rotational                   =   18.988 cal/mol-K (symmetry #  =        1)
   - Vibrational                  =    1.414 cal/mol-K
   - Translational                  =    2.979 cal/mol-K
   - Rotational                     =    2.979 cal/mol-K
   - Vibrational                    =    2.703 cal/mol-K
 P.Frequency       -0.00       -0.00        0.00        0.00        0.00        0.00
 P.Frequency      345.63     1067.09     1096.70     1183.22     1400.01     1511.30
 P.Frequency     1524.93     1541.54     2996.65     3039.07     3131.83     3754.71

 Normal Eigenvalue ||           Projected Infra Red Intensities
  Mode   [cm**-1]  || [atomic units] [(debye/angs)**2] [(KM/mol)] [arbitrary]
 ------ ---------- || -------------- ----------------- ---------- -----------
    1       -0.000 ||    0.022103           0.510        21.547       7.485
    2       -0.000 ||    0.002565           0.059         2.500       0.869
    3        0.000 ||    0.000419           0.010         0.408       0.142
    4        0.000 ||    0.002760           0.064         2.690       0.935
    5        0.000 ||    0.000111           0.003         0.108       0.038
    6        0.000 ||    0.003383           0.078         3.298       1.146
    7      345.633 ||    0.131128           3.025       127.830      44.407
    8     1067.091 ||    0.123196           2.842       120.097      41.721
    9     1096.699 ||    0.001530           0.035         1.492       0.518
   10     1183.223 ||    0.000636           0.015         0.620       0.215
   11     1400.008 ||    0.028731           0.663        28.008       9.730
   12     1511.297 ||    0.007609           0.176         7.418       2.577
   13     1524.928 ||    0.001615           0.037         1.575       0.547
   14     1541.541 ||    0.004210           0.097         4.104       1.426
   15     2996.649 ||    0.066365           1.531        64.696      22.475
   16     3039.073 ||    0.088063           2.032        85.849      29.823
   17     3131.833 ||    0.035585           0.821        34.690      12.051
   18     3754.708 ||    0.011505           0.265        11.215       3.896
 ----------------------------------------------------------------------------

 Total times  cpu:      294.1s     wall:      610.6s
